<?xml version="1.0" encoding="UTF-8"?>

<!-- generated on 2025-05-08 21:03:45 by Eclipse SUMO netedit Version 1.23.1
<neteditConfiguration xmlns:xsi="http://www.w3.org/2001/XMLSchema-instance" xsi:noNamespaceSchemaLocation="http://sumo.dlr.de/xsd/neteditConfiguration.xsd">

    <input>
        <sumocfg-file value="C:\Users\18734\Sumo\2025-05-08-14-34-58\osm.sumocfg"/>
        <additional-files value="C:\Users\18734\Sumo\2025-05-08-14-34-58\osm.poly.xml.gz,C:\Users\18734\Sumo\2025-05-08-14-34-58\osm_stops.add.xml"/>
        <route-files value="C:\Users\18734\Sumo\2025-05-08-14-34-58\osm_pt.rou.xml"/>
        <meandata-files value="C:\Users\18734\Sumo\2025-05-08-14-34-58\output.add.xml"/>
        <sumo-net-file value="C:\Users\18734\OneDrive\Documents\projet\E3.net.xml"/>
    </input>

    <output>
        <output-file value="C:\Users\18734\OneDrive\Documents\projet\E3.net.xml"/>
        <output.street-names value="true"/>
    </output>

    <processing>
        <geometry.min-radius.fix.railways value="false"/>
        <geometry.avoid-overlap value="false"/>
        <geometry.max-grade.fix value="false"/>
        <offset.disable-normalization value="true"/>
        <lefthand value="0"/>
    </processing>

    <junctions>
        <no-turnarounds value="true"/>
        <junctions.corner-detail value="5"/>
        <junctions.limit-turn-speed value="5.50"/>
        <rectangular-lane-cut value="0"/>
    </junctions>

    <pedestrian>
        <walkingareas value="0"/>
    </pedestrian>

    <netedit>
        <ignore.routeelements value="false"/>
    </netedit>

</neteditConfiguration>
-->

<net version="1.20" junctionCornerDetail="5" limitTurnSpeed="5.50" avoidOverlap="0" xmlns:xsi="http://www.w3.org/2001/XMLSchema-instance" xsi:noNamespaceSchemaLocation="http://sumo.dlr.de/xsd/net_file.xsd">

    <location netOffset="-443809.77,-5030018.55" convBoundary="0.00,0.00,763.37,623.60" origBoundary="-75.718258,45.421491,-75.708519,45.427065" projParameter="+proj=utm +zone=18 +ellps=WGS84 +datum=WGS84 +units=m +no_defs"/>

    <type id="cycleway.lane|highway.residential" priority="3" numLanes="1" speed="13.89" disallow="tram rail_urban rail rail_electric rail_fast ship container cable_car subway aircraft wheelchair scooter drone" oneway="0" bikeLaneWidth="1.25"/>
    <type id="highway.cycleway" priority="1" numLanes="1" speed="5.56" allow="bicycle" oneway="0" width="2.00"/>
    <type id="highway.footway" priority="1" numLanes="1" speed="2.78" allow="pedestrian" oneway="1" width="2.00"/>
    <type id="highway.living_street" priority="2" numLanes="1" speed="2.78" disallow="tram rail_urban rail rail_electric rail_fast ship container cable_car subway aircraft wheelchair scooter drone" oneway="0"/>
    <type id="highway.path" priority="1" numLanes="1" speed="5.56" allow="pedestrian bicycle" oneway="0" width="2.00"/>
    <type id="highway.pedestrian" priority="1" numLanes="1" speed="2.78" allow="pedestrian" oneway="1" width="2.00"/>
    <type id="highway.primary" priority="12" numLanes="2" speed="27.78" disallow="tram rail_urban rail rail_electric rail_fast ship container cable_car subway aircraft wheelchair scooter drone" oneway="0"/>
    <type id="highway.primary_link" priority="7" numLanes="1" speed="22.22" disallow="tram rail_urban rail rail_electric rail_fast ship container cable_car subway aircraft wheelchair scooter drone" oneway="0"/>
    <type id="highway.residential" priority="3" numLanes="1" speed="13.89" disallow="tram rail_urban rail rail_electric rail_fast ship container cable_car subway aircraft wheelchair scooter drone" oneway="0"/>
    <type id="highway.secondary" priority="11" numLanes="1" speed="27.78" disallow="tram rail_urban rail rail_electric rail_fast ship container cable_car subway aircraft wheelchair scooter drone" oneway="0"/>
    <type id="highway.secondary_link" priority="6" numLanes="1" speed="22.22" disallow="tram rail_urban rail rail_electric rail_fast ship container cable_car subway aircraft wheelchair scooter drone" oneway="0"/>
    <type id="highway.service" priority="1" numLanes="1" speed="5.56" allow="pedestrian delivery bicycle" oneway="0"/>
    <type id="highway.steps" priority="1" numLanes="1" speed="1.39" allow="pedestrian" oneway="1" width="2.00"/>
    <type id="highway.tertiary" priority="10" numLanes="1" speed="22.22" disallow="tram rail_urban rail rail_electric rail_fast ship container cable_car subway aircraft wheelchair scooter drone" oneway="0"/>
    <type id="highway.unclassified" priority="4" numLanes="1" speed="13.89" disallow="tram rail_urban rail rail_electric rail_fast ship container cable_car subway aircraft wheelchair scooter drone" oneway="0"/>

    <edge id=":10301048794_0" function="internal">
        <lane id=":10301048794_0_0" index="0" allow="pedestrian delivery bicycle" speed="3.65" length="4.67" shape="32.03,172.87 31.36,174.14 30.60,174.62 29.76,174.30 28.85,173.19"/>
    </edge>
    <edge id=":11901295483_0" function="internal">
        <lane id=":11901295483_0_0" index="0" allow="pedestrian delivery bicycle" speed="3.65" length="4.67" shape="758.37,-1.44 759.80,-1.24 760.50,-0.69 760.49,0.20 759.75,1.44"/>
    </edge>
    <edge id=":11901740199_0" function="internal">
        <lane id=":11901740199_0_0" index="0" allow="pedestrian bicycle" speed="2.50" length="2.19" width="1.50" shape="17.89,151.41 17.36,150.99 17.20,150.60 17.42,150.24 18.01,149.91"/>
    </edge>
    <edge id=":11901740205_0" function="internal">
        <lane id=":11901740205_0_0" index="0" allow="pedestrian bicycle" speed="5.56" length="6.03" width="1.50" shape="82.96,151.94 76.96,152.53"/>
    </edge>
    <edge id=":11901740205_1" function="internal">
        <lane id=":11901740205_1_0" index="0" allow="pedestrian bicycle" speed="2.50" length="1.82" width="1.50" shape="82.96,151.94 82.37,151.61 82.16,151.24 82.32,150.86 82.56,150.67"/>
    </edge>
    <edge id=":11901740205_4" function="internal">
        <lane id=":11901740205_4_0" index="0" allow="pedestrian bicycle" speed="2.50" length="0.37" width="1.50" shape="82.56,150.67 82.85,150.44"/>
    </edge>
    <edge id=":11901740205_2" function="internal">
        <lane id=":11901740205_2_0" index="0" allow="pedestrian bicycle" speed="5.56" length="6.10" width="1.50" shape="76.78,151.04 82.85,150.44"/>
    </edge>
    <edge id=":11901740205_3" function="internal">
        <lane id=":11901740205_3_0" index="0" allow="pedestrian bicycle" speed="2.50" length="1.90" width="1.50" shape="76.78,151.04 77.38,151.34 77.61,151.69 77.47,152.09 77.17,152.34"/>
    </edge>
    <edge id=":11901740205_5" function="internal">
        <lane id=":11901740205_5_0" index="0" allow="pedestrian bicycle" speed="2.50" length="0.29" width="1.50" shape="77.17,152.34 76.96,152.53"/>
    </edge>
    <edge id=":11918432146_0" function="internal">
        <lane id=":11918432146_0_0" index="0" allow="pedestrian delivery bicycle" speed="5.56" length="7.07" shape="616.89,444.56 614.79,444.64 613.32,444.73 611.94,445.13 610.13,446.11"/>
    </edge>
    <edge id=":11918432146_1" function="internal">
        <lane id=":11918432146_1_0" index="0" allow="pedestrian delivery bicycle" speed="5.56" length="10.83" shape="616.89,444.56 613.88,444.33 611.79,443.17 610.62,441.09 610.38,438.07"/>
    </edge>
    <edge id=":11918432146_2" function="internal">
        <lane id=":11918432146_2_0" index="0" allow="pedestrian delivery bicycle" speed="3.65" length="4.67" shape="616.89,444.56 615.64,443.84 615.19,443.07 615.53,442.25 616.68,441.37"/>
    </edge>
    <edge id=":11918432146_3" function="internal">
        <lane id=":11918432146_3_0" index="0" allow="pedestrian delivery bicycle" speed="4.91" length="5.16" shape="613.57,438.27 613.69,439.71 614.24,440.71 615.24,441.26 616.68,441.37"/>
    </edge>
    <edge id=":11918432146_4" function="internal">
        <lane id=":11918432146_4_0" index="0" allow="pedestrian delivery bicycle" speed="5.56" length="8.87" shape="613.57,438.27 613.21,440.98 612.52,443.19 611.50,444.90 610.13,446.11"/>
    </edge>
    <edge id=":11918432146_5" function="internal">
        <lane id=":11918432146_5_0" index="0" allow="pedestrian delivery bicycle" speed="3.65" length="4.67" shape="613.57,438.27 612.70,439.42 611.87,439.77 611.10,439.32 610.38,438.07"/>
    </edge>
    <edge id=":11918432146_6" function="internal">
        <lane id=":11918432146_6_0" index="0" allow="pedestrian delivery bicycle" speed="5.56" length="5.40" shape="608.00,442.55 608.95,442.08 609.66,441.17 610.13,439.84 610.38,438.07"/>
    </edge>
    <edge id=":11918432146_7" function="internal">
        <lane id=":11918432146_7_0" index="0" allow="pedestrian delivery bicycle" speed="5.56" length="8.77" shape="608.00,442.55 610.54,441.97 612.30,441.68 614.08,441.53 616.68,441.37"/>
    </edge>
    <edge id=":11918432146_8" function="internal">
        <lane id=":11918432146_8_0" index="0" allow="pedestrian delivery bicycle" speed="4.18" length="6.06" shape="608.00,442.55 609.87,442.64 610.85,443.27 610.94,444.42 610.13,446.11"/>
    </edge>
    <edge id=":11918432158_0" function="internal">
        <lane id=":11918432158_0_0" index="0" allow="pedestrian delivery bicycle" speed="3.90" length="2.63" shape="750.00,569.23 749.82,568.52 749.46,568.05 748.91,567.82 748.19,567.81"/>
    </edge>
    <edge id=":11918432160_0" function="internal">
        <lane id=":11918432160_0_0" index="0" allow="pedestrian delivery bicycle" speed="5.47" length="6.27" shape="708.76,573.73 707.40,575.24 706.75,576.64 706.81,577.93 707.57,579.11"/>
    </edge>
    <edge id=":11918432160_1" function="internal">
        <lane id=":11918432160_1_0" index="0" allow="pedestrian delivery bicycle" speed="5.56" length="7.07" shape="708.76,573.73 706.66,575.48 704.95,576.53 703.65,576.87 702.74,576.51"/>
    </edge>
    <edge id=":11918432160_2" function="internal">
        <lane id=":11918432160_2_0" index="0" allow="pedestrian delivery bicycle" speed="5.56" length="5.56" shape="705.01,574.26 705.95,575.56 706.29,576.68 706.63,577.80 707.57,579.11"/>
    </edge>
    <edge id=":11918432160_3" function="internal">
        <lane id=":11918432160_3_0" index="0" allow="pedestrian delivery bicycle" speed="3.65" length="4.67" shape="705.01,574.26 705.29,575.67 705.00,576.52 704.15,576.80 702.74,576.51"/>
    </edge>
    <edge id=":11918432164_0" function="internal">
        <lane id=":11918432164_0_0" index="0" allow="pedestrian delivery bicycle" speed="5.56" length="9.41" shape="609.88,521.30 600.54,522.40"/>
    </edge>
    <edge id=":11918432164_1" function="internal">
        <lane id=":11918432164_1_0" index="0" allow="pedestrian delivery bicycle" speed="5.56" length="10.17" shape="609.88,521.30 607.14,521.22 605.05,520.27 603.62,518.44 602.83,515.74"/>
    </edge>
    <edge id=":11918432164_2" function="internal">
        <lane id=":11918432164_2_0" index="0" allow="pedestrian delivery bicycle" speed="3.65" length="4.67" shape="609.88,521.30 608.59,520.64 608.10,519.90 608.40,519.05 609.50,518.12"/>
    </edge>
    <edge id=":11918432164_3" function="internal">
        <lane id=":11918432164_3_0" index="0" allow="pedestrian delivery bicycle" speed="5.14" length="5.12" shape="605.99,515.27 606.39,516.65 607.11,517.59 608.14,518.07 609.50,518.12"/>
    </edge>
    <edge id=":11918432164_4" function="internal">
        <lane id=":11918432164_4_0" index="0" allow="pedestrian delivery bicycle" speed="5.56" length="10.31" shape="605.99,515.27 606.00,518.11 605.10,520.24 603.28,521.67 600.54,522.40"/>
    </edge>
    <edge id=":11918432164_5" function="internal">
        <lane id=":11918432164_5_0" index="0" allow="pedestrian delivery bicycle" speed="3.65" length="4.67" shape="605.99,515.27 605.38,516.58 604.64,517.09 603.79,516.81 602.83,515.74"/>
    </edge>
    <edge id=":11918432164_6" function="internal">
        <lane id=":11918432164_6_0" index="0" allow="pedestrian delivery bicycle" speed="5.01" length="5.03" shape="600.16,519.22 601.50,518.87 602.39,518.17 602.83,517.13 602.83,515.74"/>
    </edge>
    <edge id=":11918432164_7" function="internal">
        <lane id=":11918432164_7_0" index="0" allow="pedestrian delivery bicycle" speed="5.56" length="9.40" shape="600.16,519.22 609.50,518.12"/>
    </edge>
    <edge id=":11918432164_8" function="internal">
        <lane id=":11918432164_8_0" index="0" allow="pedestrian delivery bicycle" speed="3.65" length="4.67" shape="600.16,519.22 601.45,519.88 601.94,520.62 601.63,521.47 600.54,522.40"/>
    </edge>
    <edge id=":11918432168_0" function="internal">
        <lane id=":11918432168_0_0" index="0" allow="pedestrian delivery bicycle" speed="5.15" length="5.36" shape="590.45,459.91 589.46,458.71 588.38,458.10 587.20,458.08 585.94,458.65"/>
    </edge>
    <edge id=":11918432168_1" function="internal">
        <lane id=":11918432168_1_0" index="0" allow="pedestrian delivery bicycle" speed="3.65" length="4.67" shape="590.45,459.91 590.49,458.47 590.95,457.71 591.84,457.62 593.16,458.21"/>
    </edge>
    <edge id=":11918432168_2" function="internal">
        <lane id=":11918432168_2_0" index="0" allow="pedestrian delivery bicycle" speed="4.90" length="5.18" shape="594.43,454.01 593.20,454.79 592.58,455.74 592.56,456.88 593.16,458.21"/>
    </edge>
    <edge id=":11918432168_3" function="internal">
        <lane id=":11918432168_3_0" index="0" allow="pedestrian delivery bicycle" speed="5.56" length="9.69" shape="594.43,454.01 591.81,455.19 590.04,456.06 588.35,457.07 585.94,458.65"/>
    </edge>
    <edge id=":11918432172_0" function="internal">
        <lane id=":11918432172_0_0" index="0" allow="pedestrian delivery bicycle" speed="5.56" length="9.37" shape="614.33,426.66 613.71,436.00"/>
    </edge>
    <edge id=":11918432172_1" function="internal">
        <lane id=":11918432172_1_0" index="0" allow="pedestrian delivery bicycle" speed="5.56" length="10.15" shape="614.33,426.66 613.75,429.36 612.43,431.23 610.38,432.29 607.61,432.53"/>
    </edge>
    <edge id=":11918432172_2" function="internal">
        <lane id=":11918432172_2_0" index="0" allow="pedestrian delivery bicycle" speed="3.65" length="4.67" shape="614.33,426.66 613.45,427.80 612.62,428.14 611.85,427.69 611.14,426.44"/>
    </edge>
    <edge id=":11918432172_3" function="internal">
        <lane id=":11918432172_3_0" index="0" allow="pedestrian delivery bicycle" speed="5.08" length="5.04" shape="607.78,429.33 609.17,429.22 610.19,428.69 610.85,427.77 611.14,426.44"/>
    </edge>
    <edge id=":11918432172_4" function="internal">
        <lane id=":11918432172_4_0" index="0" allow="pedestrian delivery bicycle" speed="5.56" length="10.20" shape="607.78,429.33 610.52,429.88 612.43,431.17 613.49,433.22 613.71,436.00"/>
    </edge>
    <edge id=":11918432172_5" function="internal">
        <lane id=":11918432172_5_0" index="0" allow="pedestrian delivery bicycle" speed="3.65" length="4.67" shape="607.78,429.33 608.94,430.20 609.29,431.02 608.85,431.79 607.61,432.53"/>
    </edge>
    <edge id=":11918432172_6" function="internal">
        <lane id=":11918432172_6_0" index="0" allow="pedestrian delivery bicycle" speed="5.03" length="5.01" shape="610.52,435.80 610.41,434.43 609.89,433.43 608.95,432.80 607.61,432.53"/>
    </edge>
    <edge id=":11918432172_7" function="internal">
        <lane id=":11918432172_7_0" index="0" allow="pedestrian delivery bicycle" speed="5.56" length="9.39" shape="610.52,435.80 611.14,426.44"/>
    </edge>
    <edge id=":11918432172_8" function="internal">
        <lane id=":11918432172_8_0" index="0" allow="pedestrian delivery bicycle" speed="3.65" length="4.67" shape="610.52,435.80 611.39,434.66 612.21,434.31 612.99,434.76 613.71,436.00"/>
    </edge>
    <edge id=":11918432173_0" function="internal">
        <lane id=":11918432173_0_0" index="0" allow="pedestrian delivery bicycle" speed="5.02" length="5.02" shape="558.50,429.81 557.13,429.93 556.13,430.46 555.50,431.41 555.26,432.76"/>
    </edge>
    <edge id=":11918432173_1" function="internal">
        <lane id=":11918432173_1_0" index="0" allow="pedestrian delivery bicycle" speed="5.56" length="9.39" shape="558.50,429.81 549.12,429.27"/>
    </edge>
    <edge id=":11918432173_2" function="internal">
        <lane id=":11918432173_2_0" index="0" allow="pedestrian delivery bicycle" speed="3.65" length="4.67" shape="558.50,429.81 557.34,428.95 556.99,428.12 557.43,427.35 558.68,426.62"/>
    </edge>
    <edge id=":11918432173_3" function="internal">
        <lane id=":11918432173_3_0" index="0" allow="pedestrian delivery bicycle" speed="5.56" length="9.38" shape="549.31,426.08 558.68,426.62"/>
    </edge>
    <edge id=":11918432173_4" function="internal">
        <lane id=":11918432173_4_0" index="0" allow="pedestrian delivery bicycle" speed="5.56" length="10.16" shape="549.31,426.08 552.00,426.63 553.89,427.93 554.98,429.98 555.26,432.76"/>
    </edge>
    <edge id=":11918432173_5" function="internal">
        <lane id=":11918432173_5_0" index="0" allow="pedestrian delivery bicycle" speed="3.65" length="4.67" shape="549.31,426.08 550.46,426.95 550.81,427.77 550.36,428.55 549.12,429.27"/>
    </edge>
    <edge id=":11918432173_6" function="internal">
        <lane id=":11918432173_6_0" index="0" allow="pedestrian delivery bicycle" speed="5.10" length="5.07" shape="552.06,432.64 551.92,431.23 551.39,430.21 550.45,429.55 549.12,429.27"/>
    </edge>
    <edge id=":11918432173_7" function="internal">
        <lane id=":11918432173_7_0" index="0" allow="pedestrian delivery bicycle" speed="5.56" length="10.24" shape="552.06,432.64 552.56,429.87 553.84,427.94 555.87,426.86 558.68,426.62"/>
    </edge>
    <edge id=":11918432173_8" function="internal">
        <lane id=":11918432173_8_0" index="0" allow="pedestrian delivery bicycle" speed="3.65" length="4.67" shape="552.06,432.64 552.90,431.47 553.72,431.10 554.50,431.53 555.26,432.76"/>
    </edge>
    <edge id=":11918432176_0" function="internal">
        <lane id=":11918432176_0_0" index="0" allow="pedestrian delivery bicycle" speed="3.65" length="4.67" shape="577.57,447.13 578.74,447.97 579.11,448.79 578.68,449.57 577.45,450.33"/>
    </edge>
    <edge id=":11918432222_0" function="internal">
        <lane id=":11918432222_0_0" index="0" allow="pedestrian delivery bicycle" speed="5.56" length="5.25" shape="538.08,481.28 541.18,485.53"/>
    </edge>
    <edge id=":11918432231_0" function="internal">
        <lane id=":11918432231_0_0" index="0" allow="pedestrian delivery bicycle" speed="5.56" length="5.80" shape="574.03,472.63 570.96,477.56"/>
    </edge>
    <edge id=":11918432253_0" function="internal">
        <lane id=":11918432253_0_0" index="0" allow="pedestrian delivery bicycle" speed="5.56" length="4.62" shape="624.37,531.89 623.80,527.31"/>
    </edge>
    <edge id=":11918432253_1" function="internal">
        <lane id=":11918432253_1_0" index="0" allow="pedestrian delivery bicycle" speed="3.68" length="1.62" shape="624.37,531.89 624.71,530.45 624.80,530.34"/>
    </edge>
    <edge id=":11918432253_4" function="internal">
        <lane id=":11918432253_4_0" index="0" allow="pedestrian delivery bicycle" speed="3.68" length="3.18" shape="624.80,530.34 625.34,529.78 626.25,529.87 627.45,530.74"/>
    </edge>
    <edge id=":11918432253_2" function="internal">
        <lane id=":11918432253_2_0" index="0" allow="pedestrian delivery bicycle" speed="5.56" length="3.85" shape="626.97,526.92 627.45,530.74"/>
    </edge>
    <edge id=":11918432253_3" function="internal">
        <lane id=":11918432253_3_0" index="0" allow="pedestrian delivery bicycle" speed="3.65" length="1.44" shape="626.97,526.92 626.33,528.21"/>
    </edge>
    <edge id=":11918432253_5" function="internal">
        <lane id=":11918432253_5_0" index="0" allow="pedestrian delivery bicycle" speed="3.65" length="3.23" shape="626.33,528.21 625.58,528.70 624.74,528.40 623.80,527.31"/>
    </edge>
    <edge id=":11918432266_0" function="internal">
        <lane id=":11918432266_0_0" index="0" allow="pedestrian delivery bicycle" speed="5.56" length="4.12" shape="702.60,576.37 699.70,573.45"/>
    </edge>
    <edge id=":11918432266_1" function="internal">
        <lane id=":11918432266_1_0" index="0" allow="pedestrian delivery bicycle" speed="3.65" length="1.44" shape="702.60,576.37 702.32,574.95"/>
    </edge>
    <edge id=":11918432266_4" function="internal">
        <lane id=":11918432266_4_0" index="0" allow="pedestrian delivery bicycle" speed="3.65" length="3.23" shape="702.32,574.95 702.61,574.10 703.46,573.83 704.87,574.11"/>
    </edge>
    <edge id=":11918432266_2" function="internal">
        <lane id=":11918432266_2_0" index="0" allow="pedestrian delivery bicycle" speed="5.56" length="4.12" shape="701.97,571.19 704.87,574.11"/>
    </edge>
    <edge id=":11918432266_3" function="internal">
        <lane id=":11918432266_3_0" index="0" allow="pedestrian delivery bicycle" speed="3.65" length="1.44" shape="701.97,571.19 702.24,572.61"/>
    </edge>
    <edge id=":11918432266_5" function="internal">
        <lane id=":11918432266_5_0" index="0" allow="pedestrian delivery bicycle" speed="3.65" length="3.23" shape="702.24,572.61 701.96,573.45 701.11,573.73 699.70,573.45"/>
    </edge>
    <edge id=":11918432272_0" function="internal">
        <lane id=":11918432272_0_0" index="0" allow="pedestrian delivery bicycle" speed="5.56" length="5.00" shape="599.05,490.15 598.32,485.21"/>
    </edge>
    <edge id=":11918432272_1" function="internal">
        <lane id=":11918432272_1_0" index="0" allow="pedestrian delivery bicycle" speed="3.65" length="1.44" shape="599.05,490.15 599.66,488.85"/>
    </edge>
    <edge id=":11918432272_4" function="internal">
        <lane id=":11918432272_4_0" index="0" allow="pedestrian delivery bicycle" speed="3.65" length="3.23" shape="599.66,488.85 600.40,488.34 601.25,488.61 602.21,489.68"/>
    </edge>
    <edge id=":11918432272_2" function="internal">
        <lane id=":11918432272_2_0" index="0" allow="pedestrian delivery bicycle" speed="5.56" length="5.00" shape="601.48,484.74 602.21,489.68"/>
    </edge>
    <edge id=":11918432272_3" function="internal">
        <lane id=":11918432272_3_0" index="0" allow="pedestrian delivery bicycle" speed="3.65" length="1.44" shape="601.48,484.74 600.87,486.04"/>
    </edge>
    <edge id=":11918432272_5" function="internal">
        <lane id=":11918432272_5_0" index="0" allow="pedestrian delivery bicycle" speed="3.65" length="3.23" shape="600.87,486.04 600.13,486.55 599.28,486.28 598.32,485.21"/>
    </edge>
    <edge id=":11918627576_0" function="internal">
        <lane id=":11918627576_0_0" index="0" allow="bicycle" speed="11.11" length="5.01" width="1.25" shape="119.88,291.42 119.38,286.44"/>
        <lane id=":11918627576_0_1" index="1" disallow="pedestrian bicycle tram rail_urban rail rail_electric rail_fast ship container cable_car subway aircraft wheelchair scooter drone" speed="11.11" length="5.01" shape="122.09,291.20 121.60,286.22"/>
    </edge>
    <edge id=":11918627576_2" function="internal">
        <lane id=":11918627576_2_0" index="0" allow="bicycle" speed="11.11" length="5.00" width="1.25" shape="127.00,285.68 127.49,290.66"/>
        <lane id=":11918627576_2_1" index="1" disallow="pedestrian bicycle tram rail_urban rail rail_electric rail_fast ship container cable_car subway aircraft wheelchair scooter drone" speed="11.11" length="5.00" shape="124.78,285.90 125.28,290.88"/>
    </edge>
    <edge id=":11918627584_0" function="internal">
        <lane id=":11918627584_0_0" index="0" allow="pedestrian delivery bicycle" speed="5.56" length="9.40" shape="151.01,296.26 141.63,296.98"/>
    </edge>
    <edge id=":11918627584_1" function="internal">
        <lane id=":11918627584_1_0" index="0" allow="pedestrian delivery bicycle" speed="5.56" length="10.17" shape="151.01,296.26 148.26,296.07 146.21,295.04 144.86,293.16 144.21,290.43"/>
    </edge>
    <edge id=":11918627584_2" function="internal">
        <lane id=":11918627584_2_0" index="0" allow="pedestrian delivery bicycle" speed="3.65" length="4.67" shape="151.01,296.26 149.75,295.56 149.29,294.79 149.63,293.96 150.76,293.07"/>
    </edge>
    <edge id=":11918627584_3" function="internal">
        <lane id=":11918627584_3_0" index="0" allow="pedestrian delivery bicycle" speed="5.11" length="5.08" shape="147.39,290.12 147.72,291.50 148.39,292.45 149.40,292.97 150.76,293.07"/>
    </edge>
    <edge id=":11918627584_4" function="internal">
        <lane id=":11918627584_4_0" index="0" allow="pedestrian delivery bicycle" speed="5.56" length="10.26" shape="147.39,290.12 147.26,292.94 146.26,295.02 144.38,296.37 141.63,296.98"/>
    </edge>
    <edge id=":11918627584_5" function="internal">
        <lane id=":11918627584_5_0" index="0" allow="pedestrian delivery bicycle" speed="3.65" length="4.67" shape="147.39,290.12 146.71,291.39 145.96,291.87 145.12,291.55 144.21,290.43"/>
    </edge>
    <edge id=":11918627584_6" function="internal">
        <lane id=":11918627584_6_0" index="0" allow="pedestrian delivery bicycle" speed="5.02" length="5.02" shape="141.39,293.79 142.73,293.49 143.65,292.83 144.15,291.81 144.21,290.43"/>
    </edge>
    <edge id=":11918627584_7" function="internal">
        <lane id=":11918627584_7_0" index="0" allow="pedestrian delivery bicycle" speed="5.56" length="9.40" shape="141.39,293.79 150.76,293.07"/>
    </edge>
    <edge id=":11918627584_8" function="internal">
        <lane id=":11918627584_8_0" index="0" allow="pedestrian delivery bicycle" speed="3.65" length="4.67" shape="141.39,293.79 142.64,294.49 143.10,295.26 142.76,296.09 141.63,296.98"/>
    </edge>
    <edge id=":1202174483_0" function="internal">
        <lane id=":1202174483_0_0" index="0" disallow="pedestrian tram rail_urban rail rail_electric rail_fast ship container cable_car subway aircraft wheelchair scooter drone" speed="11.11" length="14.41" shape="135.48,473.31 123.52,465.25"/>
    </edge>
    <edge id=":1202174483_1" function="internal">
        <lane id=":1202174483_1_0" index="0" disallow="pedestrian tram rail_urban rail rail_electric rail_fast ship container cable_car subway aircraft wheelchair scooter drone" speed="9.17" length="3.52" shape="135.48,473.31 132.97,470.84"/>
    </edge>
    <edge id=":1202174483_2" function="internal">
        <lane id=":1202174483_2_0" index="0" disallow="pedestrian tram rail_urban rail rail_electric rail_fast ship container cable_car subway aircraft wheelchair scooter drone" speed="3.65" length="1.44" shape="135.48,473.31 134.96,471.96"/>
    </edge>
    <edge id=":1202174483_9" function="internal">
        <lane id=":1202174483_9_0" index="0" disallow="pedestrian tram rail_urban rail rail_electric rail_fast ship container cable_car subway aircraft wheelchair scooter drone" speed="9.17" length="11.14" shape="132.97,470.84 131.60,467.81 131.37,464.23 132.27,460.10"/>
    </edge>
    <edge id=":1202174483_10" function="internal">
        <lane id=":1202174483_10_0" index="0" disallow="pedestrian tram rail_urban rail rail_electric rail_fast ship container cable_car subway aircraft wheelchair scooter drone" speed="3.65" length="3.23" shape="134.96,471.96 135.10,471.07 135.89,470.65 137.33,470.70"/>
    </edge>
    <edge id=":1202174483_3" function="internal">
        <lane id=":1202174483_3_0" index="0" disallow="pedestrian tram rail_urban rail rail_electric rail_fast ship container cable_car subway aircraft wheelchair scooter drone" speed="7.86" length="10.56" shape="135.30,461.11 134.61,464.18 134.72,466.80 135.62,468.97 137.33,470.70"/>
    </edge>
    <edge id=":1202174483_4" function="internal">
        <lane id=":1202174483_4_0" index="0" disallow="pedestrian tram rail_urban rail rail_electric rail_fast ship container cable_car subway aircraft wheelchair scooter drone" speed="7.63" length="15.25" shape="135.30,461.11 133.36,464.99 130.75,466.98 127.47,467.06 123.52,465.25"/>
    </edge>
    <edge id=":1202174483_5" function="internal">
        <lane id=":1202174483_5_0" index="0" disallow="pedestrian tram rail_urban rail rail_electric rail_fast ship container cable_car subway aircraft wheelchair scooter drone" speed="3.65" length="4.67" shape="135.30,461.11 134.17,461.99 133.28,462.12 132.65,461.49 132.27,460.10"/>
    </edge>
    <edge id=":1202174483_6" function="internal">
        <lane id=":1202174483_6_0" index="0" disallow="pedestrian tram rail_urban rail rail_electric rail_fast ship container cable_car subway aircraft wheelchair scooter drone" speed="6.03" length="9.07" shape="125.26,462.56 127.61,463.64 129.56,463.59 131.11,462.41 132.27,460.10"/>
    </edge>
    <edge id=":1202174483_7" function="internal">
        <lane id=":1202174483_7_0" index="0" disallow="pedestrian tram rail_urban rail rail_electric rail_fast ship container cable_car subway aircraft wheelchair scooter drone" speed="11.11" length="14.56" shape="125.26,462.56 137.33,470.70"/>
    </edge>
    <edge id=":1202174483_8" function="internal">
        <lane id=":1202174483_8_0" index="0" disallow="pedestrian tram rail_urban rail rail_electric rail_fast ship container cable_car subway aircraft wheelchair scooter drone" speed="3.65" length="1.44" shape="125.26,462.56 125.83,463.88"/>
    </edge>
    <edge id=":1202174483_11" function="internal">
        <lane id=":1202174483_11_0" index="0" disallow="pedestrian tram rail_urban rail rail_electric rail_fast ship container cable_car subway aircraft wheelchair scooter drone" speed="3.65" length="3.23" shape="125.83,463.88 125.74,464.77 124.97,465.23 123.52,465.25"/>
    </edge>
    <edge id=":1202174809_0" function="internal">