<?xml version="1.0" encoding="UTF-8"?>

<!-- generated on 2025-06-22 16:06:57 by Eclipse SUMO GUI Version 1.23.1
<sumoConfiguration xmlns:xsi="http://www.w3.org/2001/XMLSchema-instance" xsi:noNamespaceSchemaLocation="http://sumo.dlr.de/xsd/sumoConfiguration.xsd">

    <input>
        <net-file value="/Users/younes/Desktop/5 anomalies/projet/E3.net.xml"/>
        <route-files value="/Users/younes/Desktop/5 anomalies/projet/random_routes.rou.xml"/>
    </input>

    <output>
        <fcd-output value="/Users/younes/Desktop/5 anomalies/projet/fcd_output.xml"/>
    </output>

    <time>
        <begin value="0"/>
        <end value="300"/>
    </time>

    <report>
        <verbose value="true"/>
        <duration-log.statistics value="true"/>
        <no-step-log value="true"/>
    </report>

</sumoConfiguration>
-->

<fcd-export xmlns:xsi="http://www.w3.org/2001/XMLSchema-instance" xsi:noNamespaceSchemaLocation="http://sumo.dlr.de/xsd/fcd_file.xsd">
    <timestep time="0.00"/>
    <timestep time="1.00"/>
    <timestep time="2.00"/>
    <timestep time="3.00"/>
    <timestep time="4.00"/>
    <timestep time="5.00"/>
    <timestep time="6.00"/>
    <timestep time="7.00"/>
    <timestep time="8.00"/>
    <timestep time="9.00"/>
    <timestep time="10.00">
        <vehicle id="0" x="2.46" y="528.33" angle="90.00" type="DEFAULT_VEHTYPE" speed="0.00" pos="0.11" lane="39452954#0_0" slope="0.00"/>
    </timestep>
    <timestep time="11.00">
        <vehicle id="0" x="4.17" y="528.26" angle="92.05" type="DEFAULT_VEHTYPE" speed="1.71" pos="1.71" lane=":cluster_7413055020_7413055041_8793274128_8793274129_#1more_8_0" slope="0.00"/>
    </timestep>
    <timestep time="12.00">
        <vehicle id="0" x="7.87" y="528.12" angle="92.18" type="DEFAULT_VEHTYPE" speed="3.70" pos="5.41" lane=":cluster_7413055020_7413055041_8793274128_8793274129_#1more_8_0" slope="0.00"/>
    </timestep>
    <timestep time="13.00">
        <vehicle id="0" x="13.77" y="527.90" angle="92.18" type="DEFAULT_VEHTYPE" speed="5.90" pos="11.31" lane=":cluster_7413055020_7413055041_8793274128_8793274129_#1more_8_0" slope="0.00"/>
    </timestep>
    <timestep time="14.00">
        <vehicle id="0" x="20.99" y="527.73" angle="90.93" type="DEFAULT_VEHTYPE" speed="7.23" pos="1.21" lane="-590856945#2_0" slope="0.00"/>
    </timestep>
    <timestep time="15.00">
        <vehicle id="0" x="30.63" y="528.24" angle="86.99" type="DEFAULT_VEHTYPE" speed="9.65" pos="10.85" lane="-590856945#2_0" slope="0.00"/>
    </timestep>
    <timestep time="16.00">
        <vehicle id="0" x="41.24" y="528.80" angle="86.99" type="DEFAULT_VEHTYPE" speed="10.63" pos="21.49" lane="-590856945#2_0" slope="0.00"/>
    </timestep>
    <timestep time="17.00">
        <vehicle id="0" x="52.83" y="529.41" angle="86.99" type="DEFAULT_VEHTYPE" speed="11.61" pos="33.09" lane="-590856945#2_0" slope="0.00"/>
    </timestep>
    <timestep time="18.00">
        <vehicle id="0" x="64.12" y="530.00" angle="86.99" type="DEFAULT_VEHTYPE" speed="11.30" pos="0.09" lane=":cluster_6386565642_6945903899_6_0" slope="0.00"/>
    </timestep>
    <timestep time="19.00">
        <vehicle id="0" x="75.26" y="530.53" angle="87.38" type="DEFAULT_VEHTYPE" speed="11.15" pos="1.79" lane="-590856945#1_0" slope="0.00"/>
    </timestep>
    <timestep time="20.00">
        <vehicle id="0" x="86.93" y="531.02" angle="87.56" type="DEFAULT_VEHTYPE" speed="11.68" pos="13.47" lane="-590856945#1_0" slope="0.00"/>
    </timestep>
    <timestep time="21.00">
        <vehicle id="0" x="98.22" y="531.50" angle="87.56" type="DEFAULT_VEHTYPE" speed="11.29" pos="24.77" lane="-590856945#1_0" slope="0.00"/>
    </timestep>
    <timestep time="22.00">
        <vehicle id="0" x="108.72" y="531.95" angle="87.56" type="DEFAULT_VEHTYPE" speed="10.52" pos="35.28" lane="-590856945#1_0" slope="0.00"/>
    </timestep>
    <timestep time="23.00">
        <vehicle id="0" x="119.51" y="532.41" angle="87.56" type="DEFAULT_VEHTYPE" speed="10.80" pos="46.09" lane="-590856945#1_0" slope="0.00"/>
    </timestep>
    <timestep time="24.00">
        <vehicle id="0" x="129.07" y="532.82" angle="87.56" type="DEFAULT_VEHTYPE" speed="9.57" pos="55.66" lane="-590856945#1_0" slope="0.00"/>
    </timestep>
    <timestep time="25.00">
        <vehicle id="0" x="135.49" y="533.09" angle="87.56" type="DEFAULT_VEHTYPE" speed="6.42" pos="62.08" lane="-590856945#1_0" slope="0.00"/>
    </timestep>
    <timestep time="26.00">
        <vehicle id="0" x="143.86" y="533.94" angle="82.26" type="DEFAULT_VEHTYPE" speed="8.43" pos="5.42" lane=":cluster_7618730855_80514146_8793274138_8_0" slope="0.00"/>
    </timestep>
    <timestep time="27.00">
        <vehicle id="0" x="149.89" y="538.72" angle="38.49" type="DEFAULT_VEHTYPE" speed="8.20" pos="13.62" lane=":cluster_7618730855_80514146_8793274138_8_0" slope="0.00"/>
    </timestep>
    <timestep time="28.00">
        <vehicle id="0" x="150.97" y="547.28" angle="6.50" type="DEFAULT_VEHTYPE" speed="8.64" pos="3.48" lane="1018830566#1_0" slope="0.00"/>
    </timestep>
    <timestep time="29.00">
        <vehicle id="0" x="152.19" y="557.64" angle="6.75" type="DEFAULT_VEHTYPE" speed="10.43" pos="2.10" lane="1018830566#2_0" slope="0.00"/>
    </timestep>
    <timestep time="30.00">
        <vehicle id="0" x="153.54" y="569.13" angle="6.67" type="DEFAULT_VEHTYPE" speed="11.57" pos="1.73" lane="1018830566#3_0" slope="0.00"/>
    </timestep>
    <timestep time="31.00">
        <vehicle id="0" x="154.82" y="579.99" angle="6.72" type="DEFAULT_VEHTYPE" speed="10.94" pos="9.23" lane="993686596#0_0" slope="0.00"/>
    </timestep>
    <timestep time="32.00">
        <vehicle id="0" x="156.12" y="591.05" angle="6.72" type="DEFAULT_VEHTYPE" speed="11.14" pos="20.37" lane="993686596#0_0" slope="0.00"/>
    </timestep>
    <timestep time="33.00">
        <vehicle id="0" x="157.49" y="602.63" angle="6.72" type="DEFAULT_VEHTYPE" speed="11.66" pos="32.03" lane="993686596#0_0" slope="0.00"/>
    </timestep>
    <timestep time="34.00">
        <vehicle id="0" x="158.64" y="612.39" angle="6.72" type="DEFAULT_VEHTYPE" speed="9.82" pos="41.85" lane="993686596#0_0" slope="0.00"/>
    </timestep>
    <timestep time="35.00">
        <vehicle id="0" x="159.61" y="619.88" angle="7.54" type="DEFAULT_VEHTYPE" speed="7.54" pos="1.72" lane="993686596#1_0" slope="0.00"/>
    </timestep>
    <timestep time="36.00">
        <vehicle id="0" x="157.41" y="621.58" angle="328.42" type="DEFAULT_VEHTYPE" speed="3.47" pos="3.25" lane=":7412969948_0_0" slope="0.00"/>
    </timestep>
    <timestep time="37.00">
        <vehicle id="0" x="156.20" y="618.60" angle="222.96" type="DEFAULT_VEHTYPE" speed="3.35" pos="1.94" lane="-993686596#1_1" slope="0.00"/>
    </timestep>
    <timestep time="38.00">
        <vehicle id="0" x="155.52" y="613.31" angle="187.30" type="DEFAULT_VEHTYPE" speed="5.36" pos="0.24" lane="-993686596#0_1" slope="0.00"/>
    </timestep>
    <timestep time="39.00">
        <vehicle id="0" x="154.66" y="605.98" angle="186.72" type="DEFAULT_VEHTYPE" speed="7.38" pos="7.62" lane="-993686596#0_1" slope="0.00"/>
    </timestep>
    <timestep time="40.00">
        <vehicle id="0" x="153.58" y="596.84" angle="186.72" type="DEFAULT_VEHTYPE" speed="9.20" pos="16.82" lane="-993686596#0_1" slope="0.00"/>
    </timestep>
    <timestep time="41.00">
        <vehicle id="0" x="152.33" y="586.21" angle="186.72" type="DEFAULT_VEHTYPE" speed="10.71" pos="27.53" lane="-993686596#0_1" slope="0.00"/>
    </timestep>
    <timestep time="42.00">
        <vehicle id="0" x="150.97" y="574.68" angle="186.72" type="DEFAULT_VEHTYPE" speed="11.60" pos="39.13" lane="-993686596#0_1" slope="0.00"/>
    </timestep>
    <timestep time="43.00">
        <vehicle id="0" x="149.73" y="564.13" angle="186.69" type="DEFAULT_VEHTYPE" speed="10.62" pos="3.67" lane=":6386569905_3_0" slope="0.00"/>
    </timestep>
    <timestep time="44.00">
        <vehicle id="0" x="148.48" y="553.47" angle="186.66" type="DEFAULT_VEHTYPE" speed="10.73" pos="2.48" lane=":cluster_6386569900_7413054992_3_0" slope="0.00"/>
    </timestep>
    <timestep time="45.00">
        <vehicle id="v_zigzag" x="336.40" y="534.44" angle="187.28" type="DEFAULT_VEHTYPE" speed="0.00" pos="5.10" lane="730778104#0_0" slope="0.00"/>
    </timestep>
    <timestep time="46.00">
        <vehicle id="v_zigzag" x="336.18" y="532.66" angle="187.28" type="DEFAULT_VEHTYPE" speed="1.79" pos="6.89" lane="730778104#0_0" slope="0.00"/>
    </timestep>
    <timestep time="47.00">
        <vehicle id="v_zigzag" x="335.62" y="528.35" angle="187.33" type="DEFAULT_VEHTYPE" speed="4.35" pos="3.74" lane=":6718908106_0_0" slope="0.00"/>
    </timestep>
    <timestep time="48.00">
        <vehicle id="v_zigzag" x="334.82" y="522.07" angle="187.22" type="DEFAULT_VEHTYPE" speed="6.33" pos="5.07" lane="730778104#1_0" slope="0.00"/>
    </timestep>
    <timestep time="49.00">
        <vehicle id="v_zigzag" x="333.78" y="513.83" angle="187.22" type="DEFAULT_VEHTYPE" speed="8.31" pos="13.38" lane="730778104#1_0" slope="0.00"/>
    </timestep>
    <timestep time="50.00">
        <vehicle id="v_neg_speed" x="511.52" y="486.89" angle="217.86" type="DEFAULT_VEHTYPE" speed="0.00" pos="5.10" lane="315255906#1_0" slope="0.00"/>
        <vehicle id="v_zigzag" x="332.51" y="503.88" angle="187.24" type="DEFAULT_VEHTYPE" speed="10.03" pos="23.41" lane="730778104#1_0" slope="0.00"/>
    </timestep>
    <timestep time="51.00">
        <vehicle id="v_neg_speed" x="510.57" y="485.68" angle="217.86" type="DEFAULT_VEHTYPE" speed="1.54" pos="6.64" lane="315255906#1_0" slope="0.00"/>
        <vehicle id="v_zigzag" x="331.01" y="492.05" angle="187.25" type="DEFAULT_VEHTYPE" speed="11.92" pos="35.34" lane="730778104#1_0" slope="0.00"/>
    </timestep>
    <timestep time="52.00">
        <vehicle id="v_neg_speed" x="508.77" y="483.35" angle="217.86" type="DEFAULT_VEHTYPE" speed="2.95" pos="9.59" lane="315255906#1_0" slope="0.00"/>
        <vehicle id="v_zigzag" x="329.42" y="479.54" angle="187.25" type="DEFAULT_VEHTYPE" speed="12.61" pos="47.95" lane="730778104#1_0" slope="0.00"/>
    </timestep>
    <timestep time="53.00">
        <vehicle id="v_neg_speed" x="505.71" y="479.42" angle="217.86" type="DEFAULT_VEHTYPE" speed="4.99" pos="14.57" lane="315255906#1_0" slope="0.00"/>
        <vehicle id="v_zigzag" x="327.81" y="466.77" angle="187.06" type="DEFAULT_VEHTYPE" speed="12.88" pos="3.42" lane="39456620#1_0" slope="0.00"/>
    </timestep>
    <timestep time="54.00">
        <vehicle id="v_neg_speed" x="501.69" y="474.24" angle="217.86" type="DEFAULT_VEHTYPE" speed="6.55" pos="21.13" lane="315255906#1_0" slope="0.00"/>
        <vehicle id="v_zigzag" x="326.45" y="455.04" angle="186.58" type="DEFAULT_VEHTYPE" speed="11.82" pos="15.24" lane="39456620#1_0" slope="0.00"/>
    </timestep>
    <timestep time="55.00">
        <vehicle id="v_neg_speed" x="499.13" y="465.75" angle="217.89" type="DEFAULT_VEHTYPE" speed="8.28" pos="0.11" lane=":cluster_7393577160_80375302_1_1" slope="0.00"/>
        <vehicle id="v_zigzag" x="325.07" y="443.02" angle="186.58" type="DEFAULT_VEHTYPE" speed="12.11" pos="27.35" lane="39456620#1_0" slope="0.00"/>
    </timestep>
    <timestep time="56.00">
        <vehicle id="v_neg_speed" x="492.26" y="458.44" angle="225.98" type="DEFAULT_VEHTYPE" speed="9.91" pos="10.02" lane=":cluster_7393577160_80375302_1_1" slope="0.00"/>
        <vehicle id="v_zigzag" x="323.35" y="431.00" angle="188.15" type="DEFAULT_VEHTYPE" speed="12.15" pos="39.50" lane="39456620#1_0" slope="0.00"/>
    </timestep>
    <timestep time="57.00">
        <vehicle id="v_neg_speed" x="483.93" y="450.35" angle="226.53" type="DEFAULT_VEHTYPE" speed="11.55" pos="1.17" lane=":3213624009_0_1" slope="0.00"/>
        <vehicle id="v_zigzag" x="321.64" y="418.90" angle="187.89" type="DEFAULT_VEHTYPE" speed="12.32" pos="2.60" lane=":8680851734_0_1" slope="0.00"/>
    </timestep>
    <timestep time="58.00">
        <vehicle id="v_neg_speed" x="473.75" y="442.44" angle="225.67" type="DEFAULT_VEHTYPE" speed="13.01" pos="5.97" lane="315255814_1" slope="0.00"/>
        <vehicle id="v_zigzag" x="320.14" y="407.40" angle="187.15" type="DEFAULT_VEHTYPE" speed="11.79" pos="6.08" lane="ET02_1" slope="0.00"/>
    </timestep>
    <timestep time="59.00">
        <vehicle id="v_neg_speed" x="463.80" y="432.72" angle="225.67" type="DEFAULT_VEHTYPE" speed="13.91" pos="19.88" lane="315255814_1" slope="0.00"/>
        <vehicle id="v_zigzag" x="318.65" y="395.48" angle="187.15" type="DEFAULT_VEHTYPE" speed="12.03" pos="18.11" lane="ET02_1" slope="0.00"/>
    </timestep>
    <timestep time="60.00">
        <vehicle id="59" x="174.23" y="356.10" angle="93.22" type="DEFAULT_VEHTYPE" speed="0.00" pos="5.10" lane="308158679#2_0" slope="0.00"/>
        <vehicle id="v_ghost" x="336.40" y="534.44" angle="187.28" type="DEFAULT_VEHTYPE" speed="0.00" pos="5.10" lane="730778104#0_0" slope="0.00"/>
        <vehicle id="v_neg_speed" x="453.83" y="423.78" angle="228.15" type="DEFAULT_VEHTYPE" speed="13.39" pos="33.27" lane="315255814_1" slope="0.00"/>
        <vehicle id="v_zigzag" x="317.65" y="387.53" angle="187.15" type="DEFAULT_VEHTYPE" speed="8.02" pos="26.13" lane="ET02_1" slope="0.00"/>
    </timestep>
    <timestep time="61.00">
        <vehicle id="59" x="175.89" y="356.01" angle="93.22" type="DEFAULT_VEHTYPE" speed="1.67" pos="6.77" lane="308158679#2_0" slope="0.00"/>
        <vehicle id="v_ghost" x="336.16" y="532.55" angle="187.28" type="DEFAULT_VEHTYPE" speed="1.91" pos="7.01" lane="730778104#0_0" slope="0.00"/>
        <vehicle id="v_neg_speed" x="443.12" y="414.97" angle="232.13" type="DEFAULT_VEHTYPE" speed="13.87" pos="47.14" lane="315255814_1" slope="0.00"/>
        <vehicle id="v_zigzag" x="317.22" y="384.04" angle="187.15" type="DEFAULT_VEHTYPE" speed="3.52" pos="29.65" lane="ET02_1" slope="0.00"/>
    </timestep>
    <timestep time="62.00">
        <vehicle id="59" x="179.92" y="355.78" angle="93.22" type="DEFAULT_VEHTYPE" speed="4.03" pos="10.80" lane="308158679#2_0" slope="0.00"/>
        <vehicle id="v_ghost" x="335.71" y="529.08" angle="187.32" type="DEFAULT_VEHTYPE" speed="3.50" pos="3.01" lane=":6718908106_0_0" slope="0.00"/>
        <vehicle id="v_neg_speed" x="432.99" y="407.06" angle="231.88" type="DEFAULT_VEHTYPE" speed="12.85" pos="59.99" lane="315255814_1" slope="0.00"/>
        <vehicle id="v_zigzag" x="317.20" y="383.89" angle="187.15" type="DEFAULT_VEHTYPE" speed="0.15" pos="29.80" lane="ET02_1" slope="0.00"/>
    </timestep>
    <timestep time="63.00">
        <vehicle id="59" x="186.70" y="358.60" angle="93.22" type="DEFAULT_VEHTYPE" speed="6.61" pos="17.40" lane="308158679#2_1" slope="0.00"/>
        <vehicle id="60" x="174.23" y="356.10" angle="93.22" type="DEFAULT_VEHTYPE" speed="0.00" pos="5.10" lane="308158679#2_0" slope="0.00"/>
        <vehicle id="v_ghost" x="335.08" y="524.12" angle="187.27" type="DEFAULT_VEHTYPE" speed="4.99" pos="3.00" lane="730778104#1_0" slope="0.00"/>
        <vehicle id="v_neg_speed" x="422.99" y="398.99" angle="231.07" type="DEFAULT_VEHTYPE" speed="12.85" pos="72.84" lane="315255814_1" slope="0.00"/>
        <vehicle id="v_zigzag" x="317.19" y="383.87" angle="187.15" type="DEFAULT_VEHTYPE" speed="0.02" pos="29.82" lane="ET02_1" slope="0.00"/>
    </timestep>
    <timestep time="64.00">
        <vehicle id="59" x="194.63" y="358.15" angle="93.22" type="DEFAULT_VEHTYPE" speed="7.95" pos="25.35" lane="308158679#2_1" slope="0.00"/>
        <vehicle id="60" x="176.66" y="355.97" angle="93.22" type="DEFAULT_VEHTYPE" speed="2.43" pos="7.53" lane="308158679#2_0" slope="0.00"/>
        <vehicle id="v_ghost" x="334.26" y="517.60" angle="187.22" type="DEFAULT_VEHTYPE" speed="6.58" pos="9.58" lane="730778104#1_0" slope="0.00"/>
        <vehicle id="v_neg_speed" x="412.41" y="391.56" angle="235.89" type="DEFAULT_VEHTYPE" speed="12.93" pos="85.78" lane="315255814_1" slope="0.00"/>
        <vehicle id="v_zigzag" x="317.19" y="383.87" angle="187.15" type="DEFAULT_VEHTYPE" speed="0.00" pos="29.82" lane="ET02_1" slope="0.00"/>
    </timestep>
    <timestep time="65.00">
        <vehicle id="59" x="204.28" y="357.28" angle="97.07" type="DEFAULT_VEHTYPE" speed="9.70" pos="2.68" lane=":3134488789_0_1" slope="0.00"/>
        <vehicle id="60" x="181.72" y="358.88" angle="93.22" type="DEFAULT_VEHTYPE" speed="4.89" pos="12.42" lane="308158679#2_1" slope="0.00"/>
        <vehicle id="61" x="174.23" y="356.10" angle="93.22" type="DEFAULT_VEHTYPE" speed="0.00" pos="5.10" lane="308158679#2_0" slope="0.00"/>
        <vehicle id="v_ghost" x="333.10" y="508.52" angle="187.26" type="DEFAULT_VEHTYPE" speed="9.16" pos="18.73" lane="730778104#1_0" slope="0.00"/>
        <vehicle id="v_neg_speed" x="400.18" y="385.78" angle="256.78" type="DEFAULT_VEHTYPE" speed="13.90" pos="7.32" lane=":80375299_0_1" slope="0.00"/>
        <vehicle id="v_zigzag" x="317.19" y="383.87" angle="187.15" type="DEFAULT_VEHTYPE" speed="0.00" pos="29.82" lane="ET02_1" slope="0.00"/>
    </timestep>
    <timestep time="66.00">
        <vehicle id="59" x="215.27" y="355.65" angle="91.73" type="DEFAULT_VEHTYPE" speed="11.22" pos="5.73" lane="ET01_1" slope="0.00"/>
        <vehicle id="60" x="188.73" y="358.49" angle="93.22" type="DEFAULT_VEHTYPE" speed="7.02" pos="19.44" lane="308158679#2_1" slope="0.00"/>
        <vehicle id="61" x="175.63" y="356.02" angle="93.22" type="DEFAULT_VEHTYPE" speed="1.40" pos="6.50" lane="308158679#2_0" slope="0.00"/>
        <vehicle id="v_ghost" x="331.67" y="497.25" angle="187.24" type="DEFAULT_VEHTYPE" speed="11.36" pos="30.10" lane="730778104#1_0" slope="0.00"/>
        <vehicle id="v_neg_speed" x="388.53" y="380.09" angle="244.12" type="DEFAULT_VEHTYPE" speed="13.10" pos="13.09" lane="ET03_1" slope="0.00"/>
        <vehicle id="v_zigzag" x="317.19" y="383.87" angle="187.15" type="DEFAULT_VEHTYPE" speed="0.00" pos="29.82" lane="ET02_1" slope="0.00"/>
    </timestep>
    <timestep time="67.00">
        <vehicle id="59" x="228.82" y="355.24" angle="91.73" type="DEFAULT_VEHTYPE" speed="13.56" pos="19.29" lane="ET01_1" slope="0.00"/>
        <vehicle id="60" x="197.06" y="358.02" angle="93.22" type="DEFAULT_VEHTYPE" speed="8.34" pos="27.78" lane="308158679#2_1" slope="0.00"/>
        <vehicle id="61" x="179.54" y="355.80" angle="93.22" type="DEFAULT_VEHTYPE" speed="3.92" pos="10.41" lane="308158679#2_0" slope="0.00"/>
        <vehicle id="v_ghost" x="330.07" y="484.63" angle="187.25" type="DEFAULT_VEHTYPE" speed="12.72" pos="42.81" lane="730778104#1_0" slope="0.00"/>
        <vehicle id="v_neg_speed" x="376.88" y="375.29" angle="249.58" type="DEFAULT_VEHTYPE" speed="12.74" pos="25.83" lane="ET03_1" slope="0.00"/>
        <vehicle id="v_zigzag" x="317.19" y="383.87" angle="187.15" type="DEFAULT_VEHTYPE" speed="0.00" pos="29.82" lane="ET02_1" slope="0.00"/>
    </timestep>
    <timestep time="68.00">
        <vehicle id="59" x="242.53" y="354.19" angle="95.18" type="DEFAULT_VEHTYPE" speed="13.76" pos="33.05" lane="ET01_1" slope="0.00"/>
        <vehicle id="60" x="206.72" y="356.31" angle="106.29" type="DEFAULT_VEHTYPE" speed="9.89" pos="5.30" lane=":3134488789_0_1" slope="0.00"/>
        <vehicle id="61" x="185.93" y="358.64" angle="93.22" type="DEFAULT_VEHTYPE" speed="6.23" pos="16.64" lane="308158679#2_1" slope="0.00"/>
        <vehicle id="63" x="174.23" y="356.10" angle="93.22" type="DEFAULT_VEHTYPE" speed="0.00" pos="5.10" lane="308158679#2_0" slope="0.00"/>
        <vehicle id="v_ghost" x="328.26" y="470.46" angle="187.28" type="DEFAULT_VEHTYPE" speed="14.29" pos="9.09" lane=":6718908094_1_0" slope="0.00"/>
        <vehicle id="v_neg_speed" x="365.70" y="371.69" angle="254.85" type="DEFAULT_VEHTYPE" speed="11.87" pos="37.70" lane="ET03_1" slope="0.00"/>
        <vehicle id="v_zigzag" x="316.91" y="381.75" angle="187.34" type="DEFAULT_VEHTYPE" speed="2.14" pos="1.13" lane=":millieu_1_0" slope="0.00"/>
    </timestep>
    <timestep time="69.00">
        <vehicle id="59" x="256.65" y="352.91" angle="95.18" type="DEFAULT_VEHTYPE" speed="14.18" pos="47.23" lane="ET01_1" slope="0.00"/>
        <vehicle id="60" x="217.79" y="355.57" angle="91.73" type="DEFAULT_VEHTYPE" speed="11.12" pos="8.25" lane="ET01_1" slope="0.00"/>
        <vehicle id="61" x="193.60" y="358.21" angle="93.22" type="DEFAULT_VEHTYPE" speed="7.68" pos="24.32" lane="308158679#2_1" slope="0.00"/>
        <vehicle id="63" x="176.52" y="355.97" angle="93.22" type="DEFAULT_VEHTYPE" speed="2.29" pos="7.39" lane="308158679#2_0" slope="0.00"/>
        <vehicle id="v_ghost" x="326.51" y="455.54" angle="186.58" type="DEFAULT_VEHTYPE" speed="15.04" pos="14.73" lane="39456620#1_0" slope="0.00"/>
        <vehicle id="v_neg_speed" x="357.77" y="370.20" angle="259.66" type="DEFAULT_VEHTYPE" speed="8.16" pos="45.86" lane="ET03_1" slope="0.00"/>
        <vehicle id="v_stop" x="392.34" y="27.66" angle="343.70" type="DEFAULT_VEHTYPE" speed="0.00" pos="5.10" lane="107633337_0" slope="0.00"/>
        <vehicle id="v_zigzag" x="316.37" y="377.89" angle="188.00" type="DEFAULT_VEHTYPE" speed="3.89" pos="5.02" lane=":millieu_1_0" slope="0.00"/>
    </timestep>
    <timestep time="70.00">
        <vehicle id="59" x="269.93" y="351.79" angle="94.12" type="DEFAULT_VEHTYPE" speed="13.34" pos="60.57" lane="ET01_1" slope="0.00"/>
        <vehicle id="60" x="229.21" y="355.22" angle="91.73" type="DEFAULT_VEHTYPE" speed="11.43" pos="19.68" lane="ET01_1" slope="0.00"/>
        <vehicle id="61" x="203.01" y="357.54" angle="94.84" type="DEFAULT_VEHTYPE" speed="9.44" pos="1.38" lane=":3134488789_0_1" slope="0.00"/>
        <vehicle id="63" x="181.27" y="358.91" angle="93.22" type="DEFAULT_VEHTYPE" speed="4.58" pos="11.97" lane="308158679#2_1" slope="0.00"/>
        <vehicle id="65" x="10.87" y="493.67" angle="177.33" type="DEFAULT_VEHTYPE" speed="0.00" pos="5.10" lane="-9897006#3_0" slope="0.00"/>
        <vehicle id="v_ghost" x="324.89" y="441.79" angle="186.96" type="DEFAULT_VEHTYPE" speed="13.86" pos="28.59" lane="39456620#1_0" slope="0.00"/>
        <vehicle id="v_neg_speed" x="353.85" y="369.53" angle="260.31" type="DEFAULT_VEHTYPE" speed="4.02" pos="49.88" lane="ET03_1" slope="0.00"/>
        <vehicle id="v_stop" x="391.84" y="29.38" angle="343.70" type="DEFAULT_VEHTYPE" speed="1.79" pos="6.89" lane="107633337_0" slope="0.00"/>
        <vehicle id="v_zigzag" x="315.56" y="372.13" angle="188.00" type="DEFAULT_VEHTYPE" speed="5.79" pos="10.81" lane=":millieu_1_0" slope="0.00"/>
    </timestep>
    <timestep time="71.00">
        <vehicle id="59" x="283.39" y="350.85" angle="94.01" type="DEFAULT_VEHTYPE" speed="13.50" pos="74.07" lane="ET01_1" slope="0.00"/>
        <vehicle id="60" x="239.80" y="354.43" angle="95.18" type="DEFAULT_VEHTYPE" speed="10.63" pos="30.31" lane="ET01_1" slope="0.00"/>
        <vehicle id="61" x="214.65" y="355.67" angle="91.73" type="DEFAULT_VEHTYPE" speed="11.89" pos="5.10" lane="ET01_1" slope="0.00"/>
        <vehicle id="63" x="187.82" y="358.54" angle="93.22" type="DEFAULT_VEHTYPE" speed="6.56" pos="18.53" lane="308158679#2_1" slope="0.00"/>
        <vehicle id="65" x="10.93" y="492.33" angle="177.33" type="DEFAULT_VEHTYPE" speed="1.34" pos="6.44" lane="-9897006#3_0" slope="0.00"/>
        <vehicle id="v_ghost" x="322.83" y="427.42" angle="188.15" type="DEFAULT_VEHTYPE" speed="14.53" pos="43.12" lane="39456620#1_0" slope="0.00"/>
        <vehicle id="v_neg_speed" x="353.01" y="369.40" angle="260.53" type="DEFAULT_VEHTYPE" speed="0.86" pos="50.73" lane="ET03_1" slope="0.00"/>
        <vehicle id="v_stop" x="390.75" y="33.12" angle="343.70" type="DEFAULT_VEHTYPE" speed="3.90" pos="10.78" lane="107633337_0" slope="0.00"/>
        <vehicle id="v_zigzag" x="314.46" y="364.30" angle="188.00" type="DEFAULT_VEHTYPE" speed="7.88" pos="18.69" lane=":millieu_1_0" slope="0.00"/>
    </timestep>
    <timestep time="72.00">
        <vehicle id="59" x="292.36" y="350.22" angle="94.01" type="DEFAULT_VEHTYPE" speed="9.00" pos="83.07" lane="ET01_1" slope="0.00"/>
        <vehicle id="60" x="251.10" y="353.41" angle="95.18" type="DEFAULT_VEHTYPE" speed="11.35" pos="41.66" lane="ET01_1" slope="0.00"/>
        <vehicle id="61" x="227.12" y="358.49" angle="91.73" type="DEFAULT_VEHTYPE" speed="12.37" pos="17.47" lane="ET01_2" slope="0.00"/>
        <vehicle id="63" x="196.95" y="358.02" angle="93.22" type="DEFAULT_VEHTYPE" speed="9.15" pos="27.67" lane="308158679#2_1" slope="0.00"/>
        <vehicle id="65" x="11.09" y="488.94" angle="177.33" type="DEFAULT_VEHTYPE" speed="3.40" pos="9.84" lane="-9897006#3_0" slope="0.00"/>
        <vehicle id="v_ghost" x="320.83" y="412.89" angle="187.59" type="DEFAULT_VEHTYPE" speed="14.94" pos="0.54" lane="ET02_1" slope="0.00"/>
        <vehicle id="v_neg_speed" x="352.98" y="369.40" angle="260.54" type="DEFAULT_VEHTYPE" speed="0.03" pos="50.76" lane="ET03_1" slope="0.00"/>
        <vehicle id="v_stop" x="389.25" y="38.22" angle="343.70" type="DEFAULT_VEHTYPE" speed="5.32" pos="16.11" lane="107633337_0" slope="0.00"/>
        <vehicle id="v_zigzag" x="313.14" y="354.90" angle="188.00" type="DEFAULT_VEHTYPE" speed="9.47" pos="28.16" lane=":millieu_1_0" slope="0.00"/>
    </timestep>
    <timestep time="73.00">
        <vehicle id="59" x="297.01" y="349.90" angle="94.01" type="DEFAULT_VEHTYPE" speed="4.66" pos="87.73" lane="ET01_1" slope="0.00"/>
        <vehicle id="60" x="262.17" y="352.40" angle="95.18" type="DEFAULT_VEHTYPE" speed="11.13" pos="52.79" lane="ET01_1" slope="0.00"/>
        <vehicle id="61" x="240.77" y="357.56" angle="95.21" type="DEFAULT_VEHTYPE" speed="13.68" pos="31.15" lane="ET01_2" slope="0.00"/>
        <vehicle id="63" x="208.02" y="356.03" angle="107.22" type="DEFAULT_VEHTYPE" speed="11.32" pos="6.63" lane=":3134488789_0_1" slope="0.00"/>
        <vehicle id="65" x="11.32" y="483.95" angle="177.33" type="DEFAULT_VEHTYPE" speed="5.00" pos="14.84" lane="-9897006#3_0" slope="0.00"/>
        <vehicle id="66" x="174.23" y="356.10" angle="93.22" type="DEFAULT_VEHTYPE" speed="0.00" pos="5.10" lane="308158679#2_0" slope="0.00"/>
        <vehicle id="v_ghost" x="319.13" y="399.30" angle="187.15" type="DEFAULT_VEHTYPE" speed="13.71" pos="14.25" lane="ET02_1" slope="0.00"/>
        <vehicle id="v_neg_speed" x="352.97" y="369.40" angle="260.55" type="DEFAULT_VEHTYPE" speed="0.02" pos="50.78" lane="ET03_1" slope="0.00"/>
        <vehicle id="v_stop" x="387.12" y="45.53" angle="343.70" type="DEFAULT_VEHTYPE" speed="7.62" pos="23.73" lane="107633337_0" slope="0.00"/>
        <vehicle id="v_zigzag" x="311.59" y="343.91" angle="188.00" type="DEFAULT_VEHTYPE" speed="11.06" pos="39.22" lane=":millieu_1_0" slope="0.00"/>
    </timestep>
    <timestep time="74.00">
        <vehicle id="59" x="297.83" y="349.84" angle="94.01" type="DEFAULT_VEHTYPE" speed="0.82" pos="88.55" lane="ET01_1" slope="0.00"/>
        <vehicle id="60" x="272.81" y="351.59" angle="94.01" type="DEFAULT_VEHTYPE" speed="10.68" pos="63.46" lane="ET01_1" slope="0.00"/>
        <vehicle id="61" x="254.41" y="356.32" angle="95.21" type="DEFAULT_VEHTYPE" speed="13.69" pos="44.84" lane="ET01_2" slope="0.00"/>
        <vehicle id="63" x="219.68" y="355.51" angle="91.73" type="DEFAULT_VEHTYPE" speed="11.68" pos="10.14" lane="ET01_1" slope="0.00"/>
        <vehicle id="65" x="11.64" y="477.10" angle="177.33" type="DEFAULT_VEHTYPE" speed="6.86" pos="21.69" lane="-9897006#3_0" slope="0.00"/>
        <vehicle id="66" x="175.70" y="356.02" angle="93.22" type="DEFAULT_VEHTYPE" speed="1.47" pos="6.57" lane="308158679#2_0" slope="0.00"/>
        <vehicle id="v_ghost" x="317.98" y="390.15" angle="187.15" type="DEFAULT_VEHTYPE" speed="9.23" pos="23.48" lane="ET02_1" slope="0.00"/>
        <vehicle id="v_neg_speed" x="352.96" y="369.40" angle="260.55" type="DEFAULT_VEHTYPE" speed="0.00" pos="50.78" lane="ET03_1" slope="0.00"/>
        <vehicle id="v_stop" x="384.57" y="54.23" angle="343.70" type="DEFAULT_VEHTYPE" speed="9.07" pos="32.79" lane="107633337_0" slope="0.00"/>
        <vehicle id="v_zigzag" x="310.16" y="331.43" angle="185.32" type="DEFAULT_VEHTYPE" speed="12.52" pos="6.84" lane="S04_0" slope="0.00"/>
    </timestep>
    <timestep time="75.00">
        <vehicle id="59" x="297.97" y="349.83" angle="94.01" type="DEFAULT_VEHTYPE" speed="0.14" pos="88.69" lane="ET01_1" slope="0.00"/>
        <vehicle id="60" x="282.68" y="350.90" angle="94.01" type="DEFAULT_VEHTYPE" speed="9.90" pos="73.36" lane="ET01_1" slope="0.00"/>
        <vehicle id="61" x="268.35" y="355.10" angle="94.55" type="DEFAULT_VEHTYPE" speed="13.98" pos="58.82" lane="ET01_2" slope="0.00"/>
        <vehicle id="63" x="231.74" y="355.15" angle="91.73" type="DEFAULT_VEHTYPE" speed="12.08" pos="22.22" lane="ET01_1" slope="0.00"/>
        <vehicle id="65" x="12.08" y="467.72" angle="177.33" type="DEFAULT_VEHTYPE" speed="9.39" pos="31.08" lane="-9897006#3_0" slope="0.00"/>
        <vehicle id="66" x="179.61" y="359.00" angle="93.22" type="DEFAULT_VEHTYPE" speed="3.73" pos="10.30" lane="308158679#2_1" slope="0.00"/>
        <vehicle id="v_ghost" x="317.38" y="385.31" angle="187.15" type="DEFAULT_VEHTYPE" speed="4.88" pos="28.36" lane="ET02_1" slope="0.00"/>
        <vehicle id="v_neg_speed" x="352.96" y="369.40" angle="260.55" type="DEFAULT_VEHTYPE" speed="0.00" pos="50.78" lane="ET03_1" slope="0.00"/>
        <vehicle id="v_stop" x="381.47" y="64.85" angle="343.70" type="DEFAULT_VEHTYPE" speed="11.08" pos="43.87" lane="107633337_0" slope="0.00"/>
        <vehicle id="v_zigzag" x="309.03" y="319.19" angle="185.28" type="DEFAULT_VEHTYPE" speed="12.24" pos="19.08" lane="S04_0" slope="0.00"/>
    </timestep>
    <timestep time="76.00">
        <vehicle id="59" x="297.99" y="349.83" angle="94.01" type="DEFAULT_VEHTYPE" speed="0.02" pos="88.72" lane="ET01_1" slope="0.00"/>
        <vehicle id="60" x="288.44" y="350.50" angle="94.01" type="DEFAULT_VEHTYPE" speed="5.78" pos="79.14" lane="ET01_1" slope="0.00"/>